! TOUCHSTONE file generated by CST MICROWAVE STUDIO
! Date and time: Mon May 25 13:28:01 2026
! Project name: SMA_Coupon3.cst
! Parameters = {S=-0.3; c=-0.2; h=0.1999; k=6.92}
! Header version: 2024
! Port assignment regex: !\s*Touchstone port\s*([0-9]+)\s*=\s*(CST MWS port|CST DES external port|CST DES block port)\s*(.+)\s* \(\"(.*)\"\)(\s*mode\s*([0-9]+))?.*
! Touchstone port assignment:
! Touchstone port 1 = CST MWS port 1 ("")
! Touchstone port 2 = CST MWS port 2 ("")
! S-Parameters are not renormalized. Unphysical impedance of 0 will be written to the file.
# GHz S MA R 0
1                     0.06900307        120.7111        0.9799548       -150.3266                0               0                0               0
1.006                 0.06903283         119.806        0.9798729       -151.2242                0               0                0               0
1.012                 0.06905611        118.9014        0.9797913       -152.1218                0               0                0               0
1.018                 0.06907286        117.9972        0.9797096       -153.0193                0               0                0               0
1.024                 0.06908309        117.0935        0.9796285       -153.9169                0               0                0               0
1.03                  0.06908679        116.1903        0.9795475       -154.8144                0               0                0               0
1.036                 0.06908396        115.2875        0.9794667       -155.7119                0               0                0               0
1.042                 0.06907458        114.3852        0.9793862       -156.6093                0               0                0               0
1.048                 0.06905864        113.4834        0.9793058       -157.5068                0               0                0               0
1.054                 0.06903616         112.582        0.9792257       -158.4042                0               0                0               0
1.06                  0.06900711        111.6811        0.9791459       -159.3016                0               0                0               0
1.066                 0.06897149        110.7808        0.9790664        -160.199                0               0                0               0
1.072                  0.0689293        109.8809        0.9789872       -161.0963                0               0                0               0
1.078                 0.06888054        108.9815        0.9789083       -161.9937                0               0                0               0
1.084                 0.06882521        108.0826        0.9788298        -162.891                0               0                0               0
1.09                  0.06876329        107.1842        0.9787514       -163.7883                0               0                0               0
1.096                  0.0686948        106.2863        0.9786734       -164.6856                0               0                0               0
1.102                 0.06861972        105.3889        0.9785957       -165.5828                0               0                0               0
1.108                 0.06853806         104.492        0.9785183       -166.4801                0               0                0               0
1.114                 0.06844982        103.5956        0.9784413       -167.3773                0               0                0               0
1.12                    0.068355        102.6997        0.9783646       -168.2745                0               0                0               0
1.126                 0.06825359        101.8044        0.9782884       -169.1717                0               0                0               0
1.132                 0.06814561        100.9095        0.9782125       -170.0688                0               0                0               0
1.138                 0.06803103        100.0152        0.9781369        -170.966                0               0                0               0
1.144                 0.06790989        99.12138        0.9780618       -171.8631                0               0                0               0
1.15                  0.06778216        98.22807        0.9779869       -172.7602                0               0                0               0
1.156                 0.06764786        97.33531        0.9779126       -173.6573                0               0                0               0
1.162                   0.067507        96.44307        0.9778386       -174.5544                0               0                0               0
1.168                 0.06735957        95.55135        0.9777651       -175.4515                0               0                0               0
1.174                 0.06720558        94.66018         0.977692       -176.3485                0               0                0               0
1.18                  0.06704502         93.7695        0.9776192       -177.2455                0               0                0               0
1.186                 0.06687792        92.87937         0.977547       -178.1426                0               0                0               0
1.192                 0.06670426        91.98976        0.9774752       -179.0396                0               0                0               0
1.198                 0.06652407         91.1007        0.9774038       -179.9366                0               0                0               0
1.204                 0.06633733        90.21218        0.9773329        179.1665                0               0                0               0
1.21                  0.06614407        89.32419        0.9772625        178.2695                0               0                0               0
1.216                 0.06594428        88.43672        0.9771925        177.3725                0               0                0               0
1.222                 0.06573797        87.54982        0.9771229        176.4756                0               0                0               0
1.228                 0.06552516        86.66344        0.9770539        175.5787                0               0                0               0
1.234                 0.06530582        85.77764        0.9769854        174.6817                0               0                0               0
1.24                  0.06508001        84.89235        0.9769172        173.7848                0               0                0               0
1.246                  0.0648477        84.00765        0.9768496        172.8879                0               0                0               0
1.252                 0.06460892        83.12347        0.9767826         171.991                0               0                0               0
1.258                 0.06436366        82.23984         0.976716        171.0941                0               0                0               0
1.264                 0.06411194         81.3568        0.9766498        170.1972                0               0                0               0
1.27                  0.06385378        80.47428        0.9765842        169.3003                0               0                0               0
1.276                 0.06358916        79.59235         0.976519        168.4034                0               0                0               0
1.282                 0.06331812          78.711        0.9764544        167.5065                0               0                0               0
1.288                 0.06304065        77.83019        0.9763902        166.6096                0               0                0               0
1.294                 0.06275678        76.94999        0.9763266        165.7127                0               0                0               0
1.3                    0.0624665        76.07034        0.9762634        164.8158                0               0                0               0
1.306                 0.06216983        75.19128        0.9762007        163.9189                0               0                0               0
1.312                 0.06186678        74.31282        0.9761385         163.022                0               0                0               0
1.318                 0.06155738        73.43494        0.9760767        162.1251                0               0                0               0
1.324                 0.06124162        72.55766        0.9760155        161.2282                0               0                0               0
1.33                  0.06091952          71.681        0.9759548        160.3313                0               0                0               0
1.336                  0.0605911        70.80495        0.9758945        159.4344                0               0                0               0
1.342                 0.06025636        69.92951        0.9758347        158.5375                0               0                0               0
1.348                 0.05991533         69.0547        0.9757753        157.6405                0               0                0               0
1.354                 0.05956801        68.18054        0.9757164        156.7436                0               0                0               0
1.36                  0.05921442        67.30701        0.9756579        155.8466                0               0                0               0
1.366                 0.05885458        66.43414        0.9755999        154.9497                0               0                0               0
1.372                  0.0584885        65.56193        0.9755424        154.0527                0               0                0               0
1.378                 0.05811621         64.6904        0.9754852        153.1557                0               0                0               0
1.384                  0.0577377        63.81955        0.9754284        152.2587                0               0                0               0
1.39                  0.05735301        62.94941         0.975372        151.3617                0               0                0               0
1.396                 0.05696215        62.07997        0.9753163        150.4647                0               0                0               0
1.402                 0.05656513        61.21126        0.9752607        149.5676                0               0                0               0
1.408                 0.05616199        60.34329        0.9752056        148.6706                0               0                0               0
1.414                 0.05575273        59.47608        0.9751507        147.7735                0               0                0               0
1.42                  0.05533738        58.60964        0.9750962        146.8764                0               0                0               0
1.426                 0.05491595          57.744        0.9750422        145.9793                0               0                0               0
1.432                 0.05448847        56.87916        0.9749884        145.0822                0               0                0               0
1.438                 0.05405496        56.01516         0.974935        144.1851                0               0                0               0
1.444                 0.05361544        55.15201        0.9748821        143.2879                0               0                0               0
1.45                  0.05316993        54.28974        0.9748293        142.3907                0               0                0               0
1.456                 0.05271846        53.42836        0.9747767        141.4935                0               0                0               0
1.462                 0.05226104        52.56791        0.9747245        140.5963                0               0                0               0
1.468                 0.05179771        51.70843        0.9746725         139.699                0               0                0               0
1.474                  0.0513285        50.84992        0.9746209        138.8017                0               0                0               0
1.48                  0.05085342        49.99244        0.9745694        137.9044                0               0                0               0
1.486                 0.05037249        49.13598        0.9745181        137.0071                0               0                0               0
1.492                 0.04988576        48.28062         0.974467        136.1098                0               0                0               0
1.498                 0.04939325        47.42642        0.9744163        135.2124                0               0                0               0
1.504                 0.04889497        46.57335        0.9743655         134.315                0               0                0               0
1.51                  0.04839098        45.72149         0.974315        133.4176                0               0                0               0
1.516                 0.04788129        44.87091        0.9742646        132.5202                0               0                0               0
1.522                 0.04736594        44.02159        0.9742145        131.6227                0               0                0               0
1.528                 0.04684496        43.17367        0.9741643        130.7252                0               0                0               0
1.534                 0.04631838        42.32716        0.9741143        129.8277                0               0                0               0
1.54                  0.04578623        41.48208        0.9740645        128.9301                0               0                0               0
1.546                 0.04524856        40.63854        0.9740145        128.0326                0               0                0               0
1.552                 0.04470538        39.79663        0.9739648         127.135                0               0                0               0
1.558                 0.04415675        38.95635         0.973915        126.2373                0               0                0               0
1.564                  0.0436027        38.11785        0.9738653        125.3397                0               0                0               0
1.57                  0.04304326        37.28118        0.9738156         124.442                0               0                0               0
1.576                 0.04247848        36.44642        0.9737658        123.5443                0               0                0               0
1.582                  0.0419084        35.61369        0.9737162        122.6465                0               0                0               0
1.588                 0.04133305        34.78303        0.9736664        121.7488                0               0                0               0
1.594                 0.04075248        33.95458        0.9736165         120.851                0               0                0               0
1.6                   0.04016674        33.12851        0.9735667        119.9532                0               0                0               0
1.606                 0.03957586        32.30487        0.9735167        119.0553                0               0                0               0
1.612                  0.0389799        31.48383        0.9734666        118.1574                0               0                0               0
1.618                 0.03837888        30.66553        0.9734164        117.2596                0               0                0               0
1.624                 0.03777288        29.85011        0.9733661        116.3616                0               0                0               0
1.63                  0.03716194        29.03774        0.9733155        115.4637                0               0                0               0
1.636                 0.03654611         28.2286        0.9732649        114.5657                0               0                0               0
1.642                 0.03592542        27.42289        0.9732142        113.6677                0               0                0               0
1.648                 0.03529996        26.62082        0.9731631        112.7697                0               0                0               0
1.654                 0.03466975        25.82261        0.9731119        111.8716                0               0                0               0
1.66                  0.03403487        25.02851        0.9730606        110.9735                0               0                0               0
1.666                 0.03339536         24.2388        0.9730089        110.0754                0               0                0               0
1.672                 0.03275129        23.45376        0.9729571        109.1773                0               0                0               0
1.678                 0.03210273        22.67371        0.9729048        108.2792                0               0                0               0
1.684                 0.03144971          21.899        0.9728524         107.381                0               0                0               0
1.69                  0.03079233        21.13002        0.9727997        106.4828                0               0                0               0
1.696                 0.03013063        20.36717        0.9727467        105.5846                0               0                0               0
1.702                 0.02946468        19.61094        0.9726935        104.6863                0               0                0               0
1.708                 0.02879457        18.86182        0.9726398         103.788                0               0                0               0
1.714                 0.02812036        18.12037        0.9725859        102.8898                0               0                0               0
1.72                  0.02744212        17.38722        0.9725316        101.9915                0               0                0               0
1.726                 0.02675993        16.66306        0.9724769        101.0931                0               0                0               0
1.732                 0.02607388        15.94865        0.9724219        100.1948                0               0                0               0
1.738                 0.02538405        15.24486        0.9723666         99.2964                0               0                0               0
1.744                 0.02469053        14.55265        0.9723107        98.39804                0               0                0               0
1.75                   0.0239934         13.8731        0.9722546        97.49962                0               0                0               0
1.756                 0.02329277        13.20742         0.972198        96.60118                0               0                0               0
1.762                 0.02258874          12.557        0.9721411        95.70276                0               0                0               0
1.768                 0.02188142        11.92341        0.9720836        94.80432                0               0                0               0
1.774                 0.02117091        11.30843        0.9720258        93.90585                0               0                0               0
1.78                  0.02045735         10.7141        0.9719675        93.00735                0               0                0               0
1.786                 0.01974087        10.14278        0.9719087        92.10885                0               0                0               0
1.792                 0.01902161        9.597199        0.9718495        91.21035                0               0                0               0
1.798                 0.01829973        9.080521        0.9717899        90.31183                0               0                0               0
1.804                  0.0175754        8.596448        0.9717298         89.4133                0               0                0               0
1.81                  0.01684881        8.149337        0.9716693        88.51472                0               0                0               0
1.816                 0.01612019        7.744345         0.971608        87.61617                0               0                0               0
1.822                 0.01538976        7.387622        0.9715465        86.71762                0               0                0               0
1.828                 0.01465782         7.08656        0.9714845        85.81901                0               0                0               0
1.834                 0.01392468        6.850106        0.9714219        84.92043                0               0                0               0
1.84                  0.01319074        6.689206        0.9713588        84.02185                0               0                0               0
1.846                 0.01245645         6.61736        0.9712952        83.12322                0               0                0               0
1.852                 0.01172235        6.651407        0.9712312        82.22461                0               0                0               0
1.858                 0.01098915        6.812586        0.9711665          81.326                0               0                0               0
1.864                 0.01025771        7.128022        0.9711014        80.42739                0               0                0               0
1.87                 0.009529111         7.63281        0.9710357        79.52877                0               0                0               0
1.876                0.008804813        8.373019        0.9709695        78.63013                0               0                0               0
1.882                0.008086736        9.410018        0.9709028        77.73148                0               0                0               0
1.888                0.007377509        10.82683        0.9708355        76.83285                0               0                0               0
1.894                0.006680819        12.73738        0.9707678         75.9342                0               0                0               0
1.9                  0.006001954        15.29986        0.9706994        75.03557                0               0                0               0
1.906                  0.0053487        18.73492        0.9706305        74.13693                0               0                0               0
1.912                0.004732744        23.34676        0.9705611        73.23828                0               0                0               0
1.918                0.004171799        29.53459        0.9704912        72.33963                0               0                0               0
1.924                0.003692269        37.75267        0.9704206          71.441                0               0                0               0
1.93                 0.003330809        48.32316        0.9703495        70.54237                0               0                0               0
1.936                0.003129911        61.01715         0.970278        69.64373                0               0                0               0
1.942                0.003121952        74.66788        0.9702059         68.7451                0               0                0               0
1.948                0.003309392        87.53976        0.9701332        67.84648                0               0                0               0
1.954                 0.00366324        98.36732          0.97006        66.94786                0               0                0               0
1.96                 0.004141777        106.8315        0.9699862        66.04925                0               0                0               0
1.966                0.004707704        113.2187        0.9699119        65.15064                0               0                0               0
1.972                0.005333732        117.9818         0.969837        64.25203                0               0                0               0
1.978                0.006001441        121.5295        0.9697617        63.35344                0               0                0               0
1.984                0.006698659        124.1761        0.9696858        62.45485                0               0                0               0
1.99                 0.007417285        126.1504        0.9696093        61.55628                0               0                0               0
1.996                 0.00815182        127.6164        0.9695323        60.65771                0               0                0               0
2.002                0.008898441        128.6922        0.9694548        59.75916                0               0                0               0
2.008                0.009654422        129.4634        0.9693768        58.86061                0               0                0               0
2.014                 0.01041777        129.9936        0.9692981        57.96209                0               0                0               0
2.02                  0.01118698        130.3303        0.9692191        57.06356                0               0                0               0
2.026                 0.01196093        130.5095        0.9691394        56.16506                0               0                0               0
2.032                  0.0127387        130.5591        0.9690592        55.26656                0               0                0               0
2.038                  0.0135196        130.5009        0.9689786        54.36808                0               0                0               0
2.044                 0.01430303        130.3522        0.9688974        53.46962                0               0                0               0
2.05                  0.01508851        130.1269        0.9688157        52.57117                0               0                0               0
2.056                 0.01587564         129.836        0.9687336        51.67274                0               0                0               0
2.062                 0.01666407        129.4888        0.9686508        50.77432                0               0                0               0
2.068                  0.0174535        129.0927        0.9685677        49.87592                0               0                0               0
2.074                 0.01824366        128.6541         0.968484        48.97753                0               0                0               0
2.08                  0.01903432        128.1783        0.9683998        48.07917                0               0                0               0
2.086                 0.01982525        127.6695        0.9683152        47.18082                0               0                0               0
2.092                 0.02061626        127.1317        0.9682302        46.28249                0               0                0               0
2.098                 0.02140717         126.568        0.9681446        45.38419                0               0                0               0
2.104                 0.02219781        125.9812        0.9680585         44.4859                0               0                0               0
2.11                  0.02298803        125.3737        0.9679719        43.58764                0               0                0               0
2.116                 0.02377767        124.7475        0.9678849         42.6894                0               0                0               0
2.122                  0.0245666        124.1046        0.9677975        41.79118                0               0                0               0
2.128                 0.02535467        123.4464        0.9677096        40.89298                0               0                0               0
2.134                 0.02614176        122.7744        0.9676212         39.9948                0               0                0               0
2.14                  0.02692773        122.0898        0.9675325        39.09665                0               0                0               0
2.146                 0.02771248        121.3937        0.9674433        38.19852                0               0                0               0
2.152                 0.02849587         120.687        0.9673536        37.30042                0               0                0               0
2.158                  0.0292778        119.9707        0.9672636        36.40234                0               0                0               0
2.164                 0.03005815        119.2456        0.9671732        35.50429                0               0                0               0
2.17                   0.0308368        118.5122        0.9670823        34.60627                0               0                0               0
2.176                 0.03161366        117.7713        0.9669911        33.70826                0               0                0               0