! TOUCHSTONE file generated by CST MICROWAVE STUDIO
! Date and time: Mon May 25 13:26:51 2026
! Project name: SMA_Coupon5.cst
! Header version: 2024
! Port assignment regex: !\s*Touchstone port\s*([0-9]+)\s*=\s*(CST MWS port|CST DES external port|CST DES block port)\s*(.+)\s* \(\"(.*)\"\)(\s*mode\s*([0-9]+))?.*
! Touchstone port assignment:
! Touchstone port 1 = CST MWS port 1 ("")
! Touchstone port 2 = CST MWS port 2 ("")
# GHz S MA R 50
1                      0.0116271        120.9921        0.9814129       -154.5477        0.9814187       -154.5478       0.01161568        121.0251
1.006                 0.01163021        119.9881        0.9813297       -155.4717        0.9813354       -155.4718       0.01161906        120.0217
1.012                 0.01163176        118.9866        0.9812463       -156.3956        0.9812521       -156.3958       0.01162089        119.0209
1.018                 0.01163176        117.9876        0.9811627       -157.3196        0.9811685       -157.3197       0.01162117        118.0225
1.024                  0.0116302        116.9912        0.9810793       -158.2436        0.9810851       -158.2437       0.01161989        117.0267
1.03                  0.01162707        115.9973        0.9809955       -159.1675        0.9810013       -159.1676       0.01161705        116.0333
1.036                 0.01162237        115.0059        0.9809119       -160.0914        0.9809176       -160.0915       0.01161264        115.0425
1.042                  0.0116161        114.0171         0.980828       -161.0153        0.9808336       -161.0154       0.01160666        114.0542
1.048                 0.01160826        113.0309         0.980744       -161.9392        0.9807497       -161.9393        0.0115991        113.0683
1.054                 0.01159884        112.0471          0.98066        -162.863        0.9806657       -162.8632       0.01158997         112.085
1.06                  0.01158783         111.066        0.9805759       -163.7869        0.9805815       -163.7871       0.01157925        111.1043
1.066                 0.01157525        110.0874        0.9804918       -164.7107        0.9804973       -164.7109       0.01156695         110.126
1.072                 0.01156107        109.1114        0.9804076       -165.6346        0.9804129       -165.6348       0.01155306        109.1503
1.078                 0.01154531        108.1379        0.9803231       -166.5584        0.9803285       -166.5586       0.01153758        108.1771
1.084                 0.01152795        107.1671        0.9802388       -167.4821         0.980244       -167.4823       0.01152051        107.2064
1.09                    0.011509        106.1987        0.9801544       -168.4059        0.9801595       -168.4061       0.01150184        106.2383
1.096                 0.01148846         105.233        0.9800697       -169.3297        0.9800747       -169.3299       0.01148157        105.2728
1.102                 0.01146632        104.2699        0.9799852       -170.2534        0.9799901       -170.2536       0.01145971        104.3098
1.108                 0.01144258        103.3094        0.9799004       -171.1771        0.9799053       -171.1773       0.01143624        103.3494
1.114                 0.01141724        102.3514        0.9798157       -172.1008        0.9798205        -172.101       0.01141117        102.3915
1.12                   0.0113903        101.3961        0.9797308       -173.0245        0.9797356       -173.0247       0.01138449        101.4362
1.126                 0.01136176        100.4434         0.979646       -173.9482        0.9796506       -173.9484       0.01135621        100.4835
1.132                 0.01133161        99.49325        0.9795612       -174.8718        0.9795656       -174.8721       0.01132632        99.53341
1.138                 0.01129986        98.54579        0.9794762       -175.7954        0.9794805       -175.7957       0.01129482        98.58589
1.144                 0.01126651        97.60093        0.9793913       -176.7191        0.9793954       -176.7193       0.01126172          97.641
1.15                  0.01123155        96.65876        0.9793062       -177.6426        0.9793103       -177.6429         0.011227        96.69871
1.156                 0.01119499         95.7192        0.9792211       -178.5662         0.979225       -178.5664       0.01119067        95.75906
1.162                 0.01115682        94.78232        0.9791361       -179.4898        0.9791398         -179.49       0.01115273        94.82205
1.168                 0.01111705        93.84811         0.979051        179.5867        0.9790546        179.5864       0.01111318        93.88769
1.174                 0.01107567        92.91659        0.9789658        178.6632        0.9789694        178.6629       0.01107202        92.95599
1.18                  0.01103268        91.98776        0.9788807        177.7397        0.9788841        177.7394       0.01102925        92.02698
1.186                 0.01098809        91.06166        0.9787956        176.8162        0.9787988         176.816       0.01098486        91.10065
1.192                  0.0109419        90.13828        0.9787104        175.8928        0.9787135        175.8925       0.01093887        90.17705
1.198                  0.0108941        89.21764        0.9786253        174.9693        0.9786283        174.9691       0.01089126        89.25616
1.204                  0.0108447        88.29975        0.9785401        174.0459         0.978543        174.0456       0.01084205        88.33801
1.21                  0.01079369        87.38466        0.9784551        173.1225        0.9784577        173.1223       0.01079122        87.42262
1.216                 0.01074108        86.47236        0.9783699        172.1991        0.9783725        172.1989       0.01073879        86.51003
1.222                 0.01068687        85.56288        0.9782848        171.2758        0.9782873        171.2755       0.01068474        85.60025
1.228                 0.01063106        84.65626        0.9781998        170.3524         0.978202        170.3522       0.01062909        84.69329
1.234                 0.01057365        83.75249        0.9781148        169.4291        0.9781168        169.4289       0.01057183        83.78919
1.24                  0.01051465        82.85163        0.9780297        168.5058        0.9780317        168.5056       0.01051297        82.88799
1.246                 0.01045404         81.9537        0.9779448        167.5825        0.9779467        167.5823       0.01045251        81.98969
1.252                 0.01039184        81.05873        0.9778599        166.6593        0.9778615         166.659       0.01039044        81.09437
1.258                 0.01032805        80.16675         0.977775         165.736        0.9777765        165.7358       0.01032677        80.20202
1.264                 0.01026266         79.2778        0.9776902        164.8128        0.9776917        164.8125        0.0102615         79.3127
1.27                  0.01019569        78.39191        0.9776054        163.8896        0.9776067        163.8893       0.01019464        78.42644
1.276                 0.01012712        77.50915        0.9775207        162.9664        0.9775219        162.9662       0.01012618        77.54328
1.282                 0.01005697        76.62954         0.977436        162.0432        0.9774371         162.043       0.01005613        76.66329
1.288                0.009985235        75.75314        0.9773514        161.1201        0.9773523        161.1198      0.009984482         75.7865
1.294                0.009911916        74.88001        0.9772669        160.1969        0.9772678        160.1967       0.00991125        74.91297
1.3                  0.009837017        74.01019        0.9771824        159.2738        0.9771831        159.2736       0.00983643        74.04276
1.306                0.009760543        73.14374        0.9770981        158.3507        0.9770987        158.3505      0.009760028        73.17592
1.312                0.009682492        72.28075        0.9770138        157.4276        0.9770143        157.4274      0.009682043        72.31255
1.318                 0.00960287        71.42126        0.9769296        156.5046          0.97693        156.5043      0.009602482        71.45267
1.324                 0.00952168        70.56537        0.9768455        155.5815        0.9768457        155.5813      0.009521346         70.5964
1.33                 0.009438922        69.71314        0.9767615        154.6585        0.9767616        154.6583      0.009438637        69.74382
1.336                0.009354603        68.86468        0.9766774        153.7354        0.9766775        153.7352      0.009354362        68.89498
1.342                0.009268724        68.02007        0.9765936        152.8124        0.9765936        152.8123      0.009268521        68.05001
1.348                 0.00918129        67.17942          0.97651        151.8894        0.9765097        151.8893       0.00918112        67.20901
1.354                0.009092306        66.34281        0.9764263        150.9665        0.9764261        150.9663      0.009092161        66.37207
1.36                 0.009001773        65.51041        0.9763427        150.0435        0.9763425        150.0434      0.009001652        65.53931
1.366                0.008909698        64.68229        0.9762593        149.1206        0.9762588        149.1204      0.008909595        64.71087
1.372                0.008816085         63.8586         0.976176        148.1977        0.9761754        148.1975      0.008815994        63.88687
1.378                0.008720938        63.03949        0.9760928        147.2748        0.9760921        147.2746      0.008720856        63.06749
1.384                0.008624261        62.22513        0.9760096        146.3519         0.976009        146.3517      0.008624185        62.25284
1.39                 0.008526063        61.41567        0.9759267         145.429        0.9759259        145.4288      0.008525988         61.4431
1.396                0.008426348        60.61128        0.9758438        144.5061        0.9758431         144.506      0.008426267        60.63848
1.402                0.008325121        59.81217         0.975761        143.5833        0.9757601        143.5831      0.008325034        59.83912
1.408                0.008222388        59.01855        0.9756784        142.6604        0.9756774        142.6603      0.008222292         59.0453
1.414                0.008118159        58.23062         0.975596        141.7376        0.9755949        141.7375      0.008118049        58.25718
1.42                 0.008012438        57.44865        0.9755135        140.8148        0.9755126        140.8147      0.008012311        57.47504
1.426                0.007905232         56.6729        0.9754313         139.892        0.9754301        139.8919      0.007905087        56.69914
1.432                0.007796552        55.90365         0.975349        138.9692         0.975348        138.9691      0.007796385        55.92976
1.438                0.007686405        55.14119        0.9752671        138.0464         0.975266        138.0463      0.007686213         55.1672
1.444                0.007574799        54.38588        0.9751852        137.1237        0.9751839        137.1236      0.007574582        54.41181
1.45                 0.007461746        53.63805        0.9751032        136.2009        0.9751022        136.2008        0.0074615        53.66393
1.456                0.007347253        52.89812        0.9750217        135.2782        0.9750205        135.2781      0.007346979        52.92397
1.462                0.007231333         52.1665          0.97494        134.3555         0.974939        134.3554      0.007231028        52.19235
1.468                0.007113997        51.44365        0.9748587        133.4328        0.9748576        133.4327       0.00711366        51.46954
1.474                0.006995258        50.73007        0.9747773        132.5101        0.9747762          132.51      0.006994887        50.75602
1.48                 0.006875128         50.0263        0.9746961        131.5874         0.974695        131.5873      0.006874723        50.05236
1.486                 0.00675362        49.33296         0.974615        130.6647         0.974614        130.6646       0.00675318        49.35918
1.492                 0.00663075        48.65069        0.9745341         129.742         0.974533         129.742      0.006630276        48.67708
1.498                0.006506535        47.98022        0.9744533        128.8193        0.9744522        128.8193      0.006506026        48.00682
1.504                 0.00638099        47.32233        0.9743727        127.8967        0.9743716        127.8967      0.006380446        47.34915
1.51                 0.006254134        46.67786        0.9742922         126.974        0.9742911         126.974      0.006253557        46.70498
1.516                0.006125988        46.04777        0.9742118        126.0514        0.9742106        126.0514      0.006125377        46.07523
1.522                0.005996572        45.43311        0.9741315        125.1288        0.9741304        125.1288      0.005995927          45.461
1.528                 0.00586591        44.83506        0.9740512        124.2062        0.9740502        124.2062      0.005865233        44.86338
1.534                0.005734027        44.25488        0.9739712        123.2836        0.9739702        123.2836      0.005733319        44.28367
1.54                 0.005600948        43.69397        0.9738913         122.361        0.9738903         122.361      0.005600211        43.72331
1.546                0.005466704        43.15396        0.9738115        121.4384        0.9738105        121.4384      0.005465939         43.1839
1.552                0.005331328        42.63657        0.9737318        120.5159        0.9737308        120.5159      0.005330537        42.66716
1.558                0.005194854        42.14379        0.9736522        119.5933        0.9736513        119.5933       0.00519404        42.17513
1.564                0.005057321        41.67782        0.9735727        118.6707        0.9735719        118.6708      0.005056487        41.70996
1.57                 0.004918773        41.24115        0.9734935        117.7482        0.9734926        117.7482      0.004917919        41.27416
1.576                0.004779255        40.83653        0.9734142        116.8256        0.9734134        116.8257      0.004778387        40.87055
1.582                0.004638822        40.46725        0.9733351        115.9031        0.9733344        115.9031       0.00463794        40.50228
1.588                0.004497531        40.13675        0.9732561        114.9806        0.9732554        114.9806      0.004496641        40.17297
1.594                0.004355449        39.84918        0.9731772         114.058        0.9731766        114.0581      0.004354554        39.88666
1.6                   0.00421265        39.60917        0.9730984        113.1356        0.9730978        113.1356      0.004211754        39.64804
1.606                0.004069218        39.42216        0.9730198        112.2131        0.9730192        112.2131      0.004068325         39.4625
1.612                0.003925249        39.29416        0.9729412        111.2906        0.9729407        111.2906      0.003924364        39.33616
1.618                0.003780852        39.23229        0.9728627        110.3681        0.9728622        110.3681      0.003779982        39.27611
1.624                0.003636155        39.24483        0.9727843        109.4456        0.9727839        109.4456      0.003635305        39.29056
1.63                 0.003491304        39.34124        0.9727061        108.5231        0.9727057        108.5232       0.00349048        39.38916
1.636                 0.00334647        39.53275         0.972628        107.6006        0.9726276        107.6007       0.00334568        39.58301
1.642                0.003201855        39.83238        0.9725499        106.6782        0.9725496        106.6782      0.003201106        39.88514
1.648                0.003057696        40.25547        0.9724719        105.7557        0.9724717        105.7558      0.003056997        40.31107
1.654                0.002914277        40.82018        0.9723941        104.8332        0.9723939        104.8333      0.002913637         40.8788
1.66                 0.002771938        41.54782        0.9723163        103.9108        0.9723162        103.9109      0.002771368        41.60979
1.666                0.002631089        42.46369        0.9722386        102.9884        0.9722386        102.9885      0.002630601        42.52928
1.672                0.002492229        43.59768         0.972161        102.0659        0.9721611         102.066      0.002491836        43.66722
1.678                0.002355965        44.98491        0.9720835        101.1435        0.9720836        101.1436      0.002355683        45.05864
1.684                0.002223046        46.66644        0.9720061        100.2211        0.9720063        100.2211      0.002222892         46.7447
1.69                 0.002094389        48.68967        0.9719288        99.29869         0.971929        99.29875      0.002094383        48.77262
1.696                0.001971128        51.10794        0.9718516        98.37626        0.9718518        98.37634      0.001971289        51.19565
1.702                0.001854646        53.97906        0.9717744        97.45388        0.9717748        97.45394      0.001854998        54.07138
1.708                0.001746625        57.36162        0.9716973        96.53148        0.9716978        96.53154      0.001747191        57.45803
1.714                0.001649066        61.30774        0.9716204         95.6091        0.9716209        95.60916       0.00164987        61.40732
1.72                 0.001564276         65.8516        0.9715435         94.6867        0.9715439        94.68676      0.001565338         65.9527
1.726                0.001494786         70.9931        0.9714667         93.7643        0.9714673        93.76435      0.001496121         71.0933
1.732                0.001443173        76.67955        0.9713899        92.84195        0.9713906          92.842      0.001444783         76.7758
1.738                0.001411758        82.79242        0.9713133        91.91955        0.9713139        91.91963      0.001413633        82.88127
1.744                0.001402257        89.14838        0.9712366         90.9972        0.9712374        90.99725       0.00140437        89.22665
1.75                 0.001415453        95.52169        0.9711601        90.07482        0.9711609        90.07488      0.001417763        95.58706
1.756                0.001451049        101.6835        0.9710837         89.1525        0.9710845        89.15255      0.001453508        101.7349
1.762                0.001507763        107.4423        0.9710073        88.23012        0.9710081        88.23018       0.00151032        107.4801
1.768                0.001583605        112.6694         0.970931        87.30777        0.9709319        87.30783      0.001586213        112.6949
1.774                0.001676233        117.3032        0.9708548        86.38543        0.9708557        86.38548      0.001678853        117.3183
1.78                 0.001783264        121.3367        0.9707786         85.4631        0.9707796        85.46316      0.001785864        121.3436
1.786                0.001902473        124.8004        0.9707025        84.54076        0.9707035        84.54084       0.00190503        124.8008
1.792                0.002031901        127.7445        0.9706265        83.61844        0.9706275        83.61849      0.002034401        127.7402
1.798                0.002169886        130.2272        0.9705506        82.69609        0.9705516        82.69617      0.002172316        130.2195
1.804                0.002315045        132.3068        0.9704747        81.77379        0.9704757        81.77382      0.002317396        132.2967
1.81                 0.002466238        134.0373        0.9703987        80.85147        0.9703999        80.85153      0.002468508        134.0258
1.816                0.002622539        135.4672        0.9703229        79.92915        0.9703241        79.92923      0.002624722        135.4547
1.822                0.002783185        136.6383        0.9702472        79.00686        0.9702483        79.00688      0.002785281        136.6255
1.828                0.002947556        137.5868        0.9701715        78.08456        0.9701727        78.08459      0.002949563        137.5739
1.834                0.003115138        138.3432        0.9700958        77.16227        0.9700971        77.16231      0.003117055        138.3304
1.84                 0.003285504        138.9334        0.9700203        76.23997        0.9700215        76.24001      0.003287332         138.921
1.846                0.003458301        139.3793        0.9699448        75.31768         0.969946        75.31773       0.00346004        139.3675
1.852                0.003633227        139.6995        0.9698693        74.39541        0.9698706        74.39544      0.003634876        139.6883
1.858                0.003810029        139.9097         0.969794        73.47313        0.9697951        73.47315      0.003811589        139.8993
1.864                 0.00398849        140.0233        0.9697185        72.55085        0.9697198        72.55088      0.003989961        140.0137
1.87                 0.004168418        140.0518        0.9696431        71.62858        0.9696445        71.62861      0.004169801         140.043
1.876                0.004349653         140.005         0.969568        70.70632        0.9695692        70.70635      0.004350947         139.997
1.882                0.004532046        139.8911        0.9694927        69.78405         0.969494        69.78408      0.004533253         139.884
1.888                 0.00471547        139.7176        0.9694176        68.86179        0.9694189        68.86181      0.004716589        139.7114
1.894                 0.00489981        139.4906        0.9693425        67.93954        0.9693438        67.93956      0.004900842        139.4853
1.9                   0.00508496        139.2157        0.9692673         67.0173        0.9692687        67.01731      0.005085905        139.2112
1.906                0.005270827        138.8976        0.9691923        66.09504        0.9691936        66.09506      0.005271686         138.894
1.912                0.005457323        138.5405        0.9691174         65.1728        0.9691186        65.17283      0.005458095        138.5377
1.918                0.005644368         138.148        0.9690424        64.25057        0.9690436        64.25058      0.005645053        138.1461
1.924                0.005831885        137.7235        0.9689674        63.32835        0.9689687        63.32835      0.005832486        137.7224
1.93                 0.006019806        137.2697        0.9688927        62.40611        0.9688939        62.40611      0.006020323        137.2695
1.936                0.006208065        136.7892        0.9688177        61.48389        0.9688189        61.48389      0.006208497        136.7898
1.942                0.006396596        136.2843         0.968743        60.56167        0.9687443        60.56167      0.006396945        136.2858
1.948                0.006585343         135.757        0.9686683        59.63946        0.9686694        59.63946      0.006585607        135.7593
1.954                0.006774245        135.2092        0.9685935        58.71725        0.9685948        58.71723      0.006774427        135.2122
1.96                 0.006963251        134.6424        0.9685189        57.79504          0.96852        57.79503      0.006963351        134.6462
1.966                0.007152304         134.058        0.9684442        56.87283        0.9684454        56.87284      0.007152322        134.0627
1.972                0.007341354        133.4575        0.9683696        55.95065        0.9683708        55.95062      0.007341292        133.4629
1.978                0.007530351        132.8421         0.968295        55.02845        0.9682961        55.02843       0.00753021        132.8482
1.984                0.007719246        132.2128        0.9682205        54.10626        0.9682217        54.10624      0.007719025        132.2196
1.99                 0.007907993        131.5705        0.9681461        53.18407        0.9681471        53.18405      0.007907692        131.5781
1.996                0.008096541        130.9163        0.9680716        52.26189        0.9680726        52.26188      0.008096164        130.9246
2.002                0.008284847        130.2508        0.9679971        51.33971        0.9679981         51.3397      0.008284393        130.2598
2.008                0.008472866         129.575        0.9679228        50.41754        0.9679237        50.41752      0.008472337        129.5847
2.014                0.008660552        128.8894        0.9678484        49.49538        0.9678493        49.49535      0.008659948        128.8998
2.02                 0.008847863        128.1947        0.9677741        48.57321         0.967775        48.57318      0.008847185        128.2058
2.026                0.009034755        127.4915        0.9676998        47.65105        0.9677006        47.65103      0.009034004        127.5032
2.032                0.009221183        126.7802        0.9676255         46.7289        0.9676264        46.72887      0.009220361        126.7926
2.038                0.009407109        126.0615        0.9675512        45.80675        0.9675521        45.80672      0.009406217        126.0746
2.044                0.009592486        125.3357        0.9674771         44.8846        0.9674779        44.88457      0.009591526        125.3494
2.05                 0.009777277        124.6033        0.9674028        43.96247        0.9674035        43.96243      0.009776248        124.6177
2.056                 0.00996144        123.8647        0.9673287        43.04032        0.9673295         43.0403      0.009960344        123.8797
2.062                 0.01014493        123.1202        0.9672546        42.11819        0.9672553        42.11817       0.01014377        123.1358
2.068                 0.01032771        122.3702        0.9671805        41.19606        0.9671811        41.19604       0.01032649        122.3864
2.074                 0.01050974         121.615        0.9671063        40.27394         0.967107        40.27391       0.01050845        121.6317
2.08                  0.01069098        120.8548        0.9670324        39.35182         0.967033        39.35179       0.01068963        120.8721
2.086                 0.01087138          120.09        0.9669583        38.42971        0.9669589        38.42968       0.01086997        120.1079
2.092                 0.01105092        119.3208        0.9668844         37.5076        0.9668849        37.50757       0.01104945        119.3393
2.098                 0.01122955        118.5475        0.9668104        36.58549        0.9668109        36.58547       0.01122802        118.5666
2.104                 0.01140722        117.7703        0.9667364         35.6634        0.9667369        35.66336       0.01140564        117.7899
2.11                  0.01158391        116.9893        0.9666626         34.7413         0.966663        34.74127       0.01158227        117.0095
2.116                 0.01175957        116.2048        0.9665887        33.81921        0.9665891        33.81917       0.01175788        116.2255
2.122                 0.01193417         115.417        0.9665148        32.89712        0.9665151        32.89709       0.01193243        115.4383
2.128                 0.01210766        114.6261         0.966441        31.97504        0.9664413        31.97501       0.01210587        114.6478
2.134                 0.01228002        113.8322        0.9663671        31.05297        0.9663674        31.05294       0.01227817        113.8544
2.14                  0.01245119        113.0354        0.9662934        30.13089        0.9662936        30.13087       0.01244929        113.0582
2.146                 0.01262115         112.236        0.9662198        29.20882        0.9662199         29.2088        0.0126192        112.2593
2.152                 0.01278985         111.434         0.966146        28.28676        0.9661461        28.28673       0.01278786        111.4578
2.158                 0.01295726        110.6296        0.9660722        27.36471        0.9660724        27.36468       0.01295522        110.6539
2.164                 0.01312334         109.823        0.9659986        26.44265        0.9659987        26.44263       0.01312126        109.8477
2.17                  0.01328806        109.0141        0.9659249        25.52061        0.9659251        25.52058       0.01328594        109.0394
2.176                 0.01345137        108.2033        0.9658513        24.59857        0.9658514        24.59854       0.01344922         108.229
2.182                 0.01361325        107.3904        0.9657778        23.67653        0.9657778         23.6765       0.01361106        107.4166